<?xml version="1.0" encoding="UTF-8"?>

<!-- generated on 1/9/2018 9:10:56 PM by SUMO gui Version 0.31.0
<?xml version="1.0" encoding="UTF-8"?>

<configuration xmlns:xsi="http://www.w3.org/2001/XMLSchema-instance" xsi:noNamespaceSchemaLocation="http://sumo.dlr.de/xsd/sumoConfiguration.xsd">

    <input>
        <net-file value="D:\facultate\IA\MAdRaPR-Intelligent-Semaphore\RiLSA_Example\rilsa1.net.xml"/>
        <route-files value="D:\facultate\IA\MAdRaPR-Intelligent-Semaphore\RiLSA_Example\genroutes.rou.xml"/>
        <additional-files value="D:\facultate\IA\MAdRaPR-Intelligent-Semaphore\RiLSA_Example\vtypes.add.xml,D:\facultate\IA\MAdRaPR-Intelligent-Semaphore\RiLSA_Example\rilsa1_tls.add.xml"/>
    </input>

    <output>
        <tripinfo-output value="D:\facultate\IA\MAdRaPR-Intelligent-Semaphore\RiLSA_Example\tripinfos.xml"/>
    </output>

    <report>
        <log value="D:\facultate\IA\MAdRaPR-Intelligent-Semaphore\RiLSA_Example\sumo_log.txt"/>
    </report>

</configuration>
-->

<tripinfos xmlns:xsi="http://www.w3.org/2001/XMLSchema-instance" xsi:noNamespaceSchemaLocation="http://sumo.dlr.de/xsd/tripinfo_file.xsd">
    <tripinfo id="sm2mwLKW.0" depart="0.00" departLane="sm_1" departPos="15.10" departSpeed="13.90" departDelay="0.00" arrival="75.00" arrivalLane="mw_0" arrivalPos="490.95" arrivalSpeed="12.72" duration="75.00" routeLength="983.44" waitSteps="0" timeLoss="3.53" rerouteNo="0" devices="tripinfo_sm2mwLKW.0" vType="LKW" speedFactor="1.00" vaporized=""/>
    <tripinfo id="nm2msLKW.0" depart="0.00" departLane="nm_0" departPos="15.10" departSpeed="13.90" departDelay="0.00" arrival="77.00" arrivalLane="ms_0" arrivalPos="490.95" arrivalSpeed="13.31" duration="77.00" routeLength="984.31" waitSteps="0" timeLoss="5.60" rerouteNo="0" devices="tripinfo_nm2msLKW.0" vType="LKW" speedFactor="1.00" vaporized=""/>
    <tripinfo id="em2mnLKW.0" depart="0.00" departLane="em_0" departPos="15.10" departSpeed="13.90" departDelay="0.00" arrival="103.00" arrivalLane="mn_0" arrivalPos="490.95" arrivalSpeed="12.80" duration="103.00" routeLength="975.65" waitSteps="24" timeLoss="32.68" rerouteNo="0" devices="tripinfo_em2mnLKW.0" vType="LKW" speedFactor="1.00" vaporized=""/>
    <tripinfo id="wm2meLKW.0" depart="0.00" departLane="wm_0" departPos="15.10" departSpeed="13.90" departDelay="0.00" arrival="103.00" arrivalLane="me_0" arrivalPos="490.95" arrivalSpeed="13.48" duration="103.00" routeLength="984.31" waitSteps="24" timeLoss="31.96" rerouteNo="0" devices="tripinfo_wm2meLKW.0" vType="LKW" speedFactor="1.00" vaporized=""/>
    <tripinfo id="em2msLKW.0" depart="0.00" departLane="em_1" departPos="15.10" departSpeed="13.90" departDelay="0.00" arrival="107.00" arrivalLane="ms_0" arrivalPos="490.95" arrivalSpeed="13.82" duration="107.00" routeLength="983.44" waitSteps="23" timeLoss="35.77" rerouteNo="0" devices="tripinfo_em2msLKW.0" vType="LKW" speedFactor="1.00" vaporized=""/>
    <tripinfo id="wm2mnLKW.0" depart="0.00" departLane="wm_1" departPos="15.10" departSpeed="13.90" departDelay="0.00" arrival="107.00" arrivalLane="mn_0" arrivalPos="490.95" arrivalSpeed="12.90" duration="107.00" routeLength="983.44" waitSteps="24" timeLoss="35.84" rerouteNo="0" devices="tripinfo_wm2mnLKW.0" vType="LKW" speedFactor="1.00" vaporized=""/>
    <tripinfo id="em2mnPKW.0" depart="1.00" departLane="em_0" departPos="5.10" departSpeed="11.44" departDelay="1.00" arrival="111.00" arrivalLane="mn_0" arrivalPos="490.95" arrivalSpeed="13.03" duration="110.00" routeLength="985.65" waitSteps="23" timeLoss="38.70" rerouteNo="0" devices="tripinfo_em2mnPKW.0" vType="PKW" speedFactor="1.00" vaporized=""/>
    <tripinfo id="wm2mePKW.0" depart="1.00" departLane="wm_0" departPos="5.10" departSpeed="10.81" departDelay="1.00" arrival="111.00" arrivalLane="me_0" arrivalPos="490.95" arrivalSpeed="12.64" duration="110.00" routeLength="994.31" waitSteps="23" timeLoss="38.08" rerouteNo="0" devices="tripinfo_wm2mePKW.0" vType="PKW" speedFactor="1.00" vaporized=""/>
    <tripinfo id="sm2mePKW.0" depart="0.00" departLane="sm_0" departPos="5.10" departSpeed="13.90" departDelay="0.00" arrival="122.00" arrivalLane="me_0" arrivalPos="490.95" arrivalSpeed="13.73" duration="122.00" routeLength="985.65" waitSteps="41" timeLoss="50.41" rerouteNo="0" devices="tripinfo_sm2mePKW.0" vType="PKW" speedFactor="1.00" vaporized=""/>
    <tripinfo id="nm2msPKW.0" depart="1.00" departLane="nm_0" departPos="5.10" departSpeed="11.79" departDelay="1.00" arrival="123.00" arrivalLane="ms_0" arrivalPos="490.95" arrivalSpeed="12.93" duration="122.00" routeLength="994.31" waitSteps="41" timeLoss="49.66" rerouteNo="0" devices="tripinfo_nm2msPKW.0" vType="PKW" speedFactor="1.00" vaporized=""/>
    <tripinfo id="nm2meLKW.0" depart="0.00" departLane="nm_1" departPos="15.10" departSpeed="13.90" departDelay="0.00" arrival="124.00" arrivalLane="me_0" arrivalPos="490.95" arrivalSpeed="13.14" duration="124.00" routeLength="983.44" waitSteps="43" timeLoss="52.87" rerouteNo="0" devices="tripinfo_nm2meLKW.0" vType="LKW" speedFactor="1.00" vaporized=""/>
    <tripinfo id="sm2mwPKW.0" depart="1.00" departLane="sm_1" departPos="5.10" departSpeed="11.79" departDelay="1.00" arrival="125.00" arrivalLane="mw_0" arrivalPos="490.95" arrivalSpeed="13.03" duration="124.00" routeLength="993.44" waitSteps="39" timeLoss="52.22" rerouteNo="0" devices="tripinfo_sm2mwPKW.0" vType="PKW" speedFactor="1.00" vaporized=""/>
    <tripinfo id="wm2msLKW.0" depart="3.00" departLane="wm_0" departPos="15.10" departSpeed="9.52" departDelay="3.00" arrival="152.00" arrivalLane="ms_0" arrivalPos="490.95" arrivalSpeed="13.75" duration="149.00" routeLength="975.65" waitSteps="60" timeLoss="77.98" rerouteNo="0" devices="tripinfo_wm2msLKW.0" vType="LKW" speedFactor="1.00" vaporized=""/>
    <tripinfo id="em2mwLKW.0" depart="3.00" departLane="em_0" departPos="15.10" departSpeed="10.26" departDelay="3.00" arrival="152.00" arrivalLane="mw_0" arrivalPos="490.95" arrivalSpeed="13.53" duration="149.00" routeLength="984.31" waitSteps="58" timeLoss="77.34" rerouteNo="0" devices="tripinfo_em2mwLKW.0" vType="LKW" speedFactor="1.00" vaporized=""/>
    <tripinfo id="em2mwPKW.0" depart="4.00" departLane="em_0" departPos="5.10" departSpeed="7.31" departDelay="4.00" arrival="154.00" arrivalLane="mw_0" arrivalPos="490.95" arrivalSpeed="13.62" duration="150.00" routeLength="994.31" waitSteps="58" timeLoss="78.24" rerouteNo="0" devices="tripinfo_em2mwPKW.0" vType="PKW" speedFactor="1.00" vaporized=""/>
    <tripinfo id="em2msPKW.0" depart="1.00" departLane="em_1" departPos="5.10" departSpeed="10.77" departDelay="1.00" arrival="155.00" arrivalLane="ms_0" arrivalPos="490.95" arrivalSpeed="12.95" duration="154.00" routeLength="993.44" waitSteps="62" timeLoss="82.29" rerouteNo="0" devices="tripinfo_em2msPKW.0" vType="PKW" speedFactor="1.00" vaporized=""/>
    <tripinfo id="wm2mnPKW.0" depart="1.00" departLane="wm_1" departPos="5.10" departSpeed="10.57" departDelay="1.00" arrival="158.00" arrivalLane="mn_0" arrivalPos="490.95" arrivalSpeed="13.17" duration="157.00" routeLength="993.44" waitSteps="64" timeLoss="85.30" rerouteNo="0" devices="tripinfo_wm2mnPKW.0" vType="PKW" speedFactor="1.00" vaporized=""/>
    <tripinfo id="nm2mwLKW.0" depart="3.00" departLane="nm_0" departPos="15.10" departSpeed="8.70" departDelay="3.00" arrival="171.00" arrivalLane="mw_0" arrivalPos="490.95" arrivalSpeed="13.77" duration="168.00" routeLength="975.65" waitSteps="81" timeLoss="96.79" rerouteNo="0" devices="tripinfo_nm2mwLKW.0" vType="LKW" speedFactor="1.00" vaporized=""/>
    <tripinfo id="sm2mnLKW.0" depart="2.00" departLane="sm_0" departPos="15.10" departSpeed="12.42" departDelay="2.00" arrival="171.00" arrivalLane="mn_0" arrivalPos="490.95" arrivalSpeed="12.94" duration="169.00" routeLength="984.31" waitSteps="83" timeLoss="97.37" rerouteNo="0" devices="tripinfo_sm2mnLKW.0" vType="LKW" speedFactor="1.00" vaporized=""/>
    <tripinfo id="sm2mwPKW.1" depart="39.00" departLane="sm_1" departPos="5.10" departSpeed="13.90" departDelay="-0.56" arrival="174.00" arrivalLane="mw_0" arrivalPos="490.95" arrivalSpeed="13.25" duration="135.00" routeLength="993.44" waitSteps="48" timeLoss="62.85" rerouteNo="0" devices="tripinfo_sm2mwPKW.1" vType="PKW" speedFactor="1.00" vaporized=""/>
    <tripinfo id="nm2mePKW.0" depart="1.00" departLane="nm_1" departPos="5.10" departSpeed="10.97" departDelay="1.00" arrival="175.00" arrivalLane="me_0" arrivalPos="490.95" arrivalSpeed="12.89" duration="174.00" routeLength="993.44" waitSteps="83" timeLoss="102.11" rerouteNo="0" devices="tripinfo_nm2mePKW.0" vType="PKW" speedFactor="1.00" vaporized=""/>
    <tripinfo id="wm2msPKW.0" depart="4.00" departLane="wm_0" departPos="5.10" departSpeed="6.10" departDelay="4.00" arrival="199.00" arrivalLane="ms_0" arrivalPos="490.95" arrivalSpeed="12.82" duration="195.00" routeLength="985.65" waitSteps="101" timeLoss="123.68" rerouteNo="0" devices="tripinfo_wm2msPKW.0" vType="PKW" speedFactor="1.00" vaporized=""/>
    <tripinfo id="em2mwPKW.1" depart="7.00" departLane="em_0" departPos="5.10" departSpeed="13.22" departDelay="0.00" arrival="200.00" arrivalLane="mw_0" arrivalPos="490.95" arrivalSpeed="12.65" duration="193.00" routeLength="994.31" waitSteps="96" timeLoss="120.84" rerouteNo="0" devices="tripinfo_em2mwPKW.1" vType="PKW" speedFactor="1.00" vaporized=""/>
    <tripinfo id="em2msPKW.1" depart="78.00" departLane="em_1" departPos="5.10" departSpeed="13.90" departDelay="-0.26" arrival="201.00" arrivalLane="ms_0" arrivalPos="490.95" arrivalSpeed="13.59" duration="123.00" routeLength="993.44" waitSteps="42" timeLoss="51.00" rerouteNo="0" devices="tripinfo_em2msPKW.1" vType="PKW" speedFactor="1.00" vaporized=""/>
    <tripinfo id="em2mwPKW.2" depart="14.00" departLane="em_0" departPos="5.10" departSpeed="13.90" departDelay="-0.01" arrival="202.00" arrivalLane="mw_0" arrivalPos="490.95" arrivalSpeed="12.97" duration="188.00" routeLength="994.31" waitSteps="92" timeLoss="115.54" rerouteNo="0" devices="tripinfo_em2mwPKW.2" vType="PKW" speedFactor="1.00" vaporized=""/>
    <tripinfo id="wm2mePKW.1" depart="6.00" departLane="wm_0" departPos="5.10" departSpeed="6.88" departDelay="0.36" arrival="204.00" arrivalLane="me_0" arrivalPos="490.95" arrivalSpeed="13.61" duration="198.00" routeLength="994.31" waitSteps="99" timeLoss="125.89" rerouteNo="0" devices="tripinfo_wm2mePKW.1" vType="PKW" speedFactor="1.00" vaporized=""/>
    <tripinfo id="wm2mnPKW.1" depart="52.00" departLane="wm_1" departPos="5.10" departSpeed="13.90" departDelay="-0.17" arrival="206.00" arrivalLane="mn_0" arrivalPos="490.95" arrivalSpeed="12.60" duration="154.00" routeLength="993.44" waitSteps="63" timeLoss="81.86" rerouteNo="0" devices="tripinfo_wm2mnPKW.1" vType="PKW" speedFactor="1.00" vaporized=""/>
    <tripinfo id="sm2mnPKW.0" depart="3.00" departLane="sm_0" departPos="5.10" departSpeed="10.21" departDelay="3.00" arrival="218.00" arrivalLane="mn_0" arrivalPos="490.95" arrivalSpeed="13.05" duration="215.00" routeLength="994.31" waitSteps="123" timeLoss="143.26" rerouteNo="0" devices="tripinfo_sm2mnPKW.0" vType="PKW" speedFactor="1.00" vaporized=""/>
    <tripinfo id="nm2mwPKW.0" depart="4.00" departLane="nm_0" departPos="5.10" departSpeed="3.96" departDelay="4.00" arrival="219.00" arrivalLane="mw_0" arrivalPos="490.95" arrivalSpeed="12.72" duration="215.00" routeLength="985.65" waitSteps="121" timeLoss="143.19" rerouteNo="0" devices="tripinfo_nm2mwPKW.0" vType="PKW" speedFactor="1.00" vaporized=""/>
    <tripinfo id="sm2mwPKW.2" depart="79.00" departLane="sm_1" departPos="5.10" departSpeed="13.90" departDelay="-0.12" arrival="221.00" arrivalLane="mw_0" arrivalPos="490.95" arrivalSpeed="12.63" duration="142.00" routeLength="993.44" waitSteps="54" timeLoss="69.73" rerouteNo="0" devices="tripinfo_sm2mwPKW.2" vType="PKW" speedFactor="1.00" vaporized=""/>
    <tripinfo id="nm2mePKW.1" depart="66.00" departLane="nm_1" departPos="5.10" departSpeed="13.90" departDelay="-0.67" arrival="221.00" arrivalLane="me_0" arrivalPos="490.95" arrivalSpeed="13.11" duration="155.00" routeLength="993.44" waitSteps="67" timeLoss="83.08" rerouteNo="0" devices="tripinfo_nm2mePKW.1" vType="PKW" speedFactor="1.00" vaporized=""/>
    <tripinfo id="em2mwPKW.3" depart="21.00" departLane="em_0" departPos="5.10" departSpeed="13.90" departDelay="-0.01" arrival="248.00" arrivalLane="mw_0" arrivalPos="490.95" arrivalSpeed="13.78" duration="227.00" routeLength="994.31" waitSteps="125" timeLoss="155.05" rerouteNo="0" devices="tripinfo_em2mwPKW.3" vType="PKW" speedFactor="1.00" vaporized=""/>
    <tripinfo id="wm2mePKW.2" depart="11.00" departLane="wm_0" departPos="5.10" departSpeed="13.90" departDelay="-0.28" arrival="248.00" arrivalLane="me_0" arrivalPos="490.95" arrivalSpeed="13.05" duration="237.00" routeLength="994.31" waitSteps="137" timeLoss="165.20" rerouteNo="0" devices="tripinfo_wm2mePKW.2" vType="PKW" speedFactor="1.00" vaporized=""/>
    <tripinfo id="wm2mePKW.3" depart="16.00" departLane="wm_0" departPos="5.10" departSpeed="13.90" departDelay="-0.93" arrival="250.00" arrivalLane="me_0" arrivalPos="490.95" arrivalSpeed="12.68" duration="234.00" routeLength="994.31" waitSteps="132" timeLoss="161.90" rerouteNo="0" devices="tripinfo_wm2mePKW.3" vType="PKW" speedFactor="1.00" vaporized=""/>
    <tripinfo id="wm2mnPKW.2" depart="104.00" departLane="wm_1" departPos="5.10" departSpeed="13.90" departDelay="-0.35" arrival="251.00" arrivalLane="mn_0" arrivalPos="490.95" arrivalSpeed="13.49" duration="147.00" routeLength="993.44" waitSteps="57" timeLoss="74.56" rerouteNo="0" devices="tripinfo_wm2mnPKW.2" vType="PKW" speedFactor="1.00" vaporized=""/>
    <tripinfo id="em2msPKW.2" depart="156.00" departLane="em_1" departPos="5.10" departSpeed="13.90" departDelay="-0.52" arrival="253.00" arrivalLane="ms_0" arrivalPos="490.95" arrivalSpeed="12.89" duration="97.00" routeLength="993.44" waitSteps="14" timeLoss="25.14" rerouteNo="0" devices="tripinfo_em2msPKW.2" vType="PKW" speedFactor="1.00" vaporized=""/>
    <tripinfo id="em2mwPKW.4" depart="28.00" departLane="em_0" departPos="5.10" departSpeed="13.90" departDelay="-0.01" arrival="254.00" arrivalLane="mw_0" arrivalPos="490.95" arrivalSpeed="13.07" duration="226.00" routeLength="994.31" waitSteps="118" timeLoss="153.92" rerouteNo="0" devices="tripinfo_em2mwPKW.4" vType="PKW" speedFactor="1.00" vaporized=""/>
    <tripinfo id="wm2mePKW.4" depart="22.00" departLane="wm_0" departPos="5.10" departSpeed="13.90" departDelay="-0.57" arrival="254.00" arrivalLane="me_0" arrivalPos="490.95" arrivalSpeed="13.69" duration="232.00" routeLength="994.31" waitSteps="125" timeLoss="159.75" rerouteNo="0" devices="tripinfo_wm2mePKW.4" vType="PKW" speedFactor="1.00" vaporized=""/>
    <tripinfo id="wm2mnPKW.3" depart="156.00" departLane="wm_1" departPos="5.10" departSpeed="13.90" departDelay="-0.52" arrival="257.00" arrivalLane="mn_0" arrivalPos="490.95" arrivalSpeed="13.86" duration="101.00" routeLength="993.44" waitSteps="13" timeLoss="28.78" rerouteNo="0" devices="tripinfo_wm2mnPKW.3" vType="PKW" speedFactor="1.00" vaporized=""/>
    <tripinfo id="sm2mnPKW.1" depart="23.00" departLane="sm_0" departPos="5.10" departSpeed="13.90" departDelay="-0.84" arrival="267.00" arrivalLane="mn_0" arrivalPos="490.95" arrivalSpeed="13.15" duration="244.00" routeLength="994.31" waitSteps="150" timeLoss="172.14" rerouteNo="0" devices="tripinfo_sm2mnPKW.1" vType="PKW" speedFactor="1.00" vaporized=""/>
    <tripinfo id="nm2msPKW.1" depart="24.00" departLane="nm_0" departPos="5.10" departSpeed="13.90" departDelay="-0.83" arrival="267.00" arrivalLane="ms_0" arrivalPos="490.95" arrivalSpeed="13.00" duration="243.00" routeLength="994.31" waitSteps="150" timeLoss="170.75" rerouteNo="0" devices="tripinfo_nm2msPKW.1" vType="PKW" speedFactor="1.00" vaporized=""/>
    <tripinfo id="sm2mwPKW.3" depart="118.00" departLane="sm_1" departPos="5.10" departSpeed="13.90" departDelay="-0.68" arrival="270.00" arrivalLane="mw_0" arrivalPos="490.95" arrivalSpeed="13.41" duration="152.00" routeLength="993.44" waitSteps="63" timeLoss="80.26" rerouteNo="0" devices="tripinfo_sm2mwPKW.3" vType="PKW" speedFactor="1.00" vaporized=""/>
    <tripinfo id="nm2mePKW.2" depart="133.00" departLane="nm_1" departPos="5.10" departSpeed="13.90" departDelay="-0.33" arrival="270.00" arrivalLane="me_0" arrivalPos="490.95" arrivalSpeed="13.58" duration="137.00" routeLength="993.44" waitSteps="49" timeLoss="65.11" rerouteNo="0" devices="tripinfo_nm2mePKW.2" vType="PKW" speedFactor="1.00" vaporized=""/>
    <tripinfo id="wm2msPKW.1" depart="28.00" departLane="wm_0" departPos="5.10" departSpeed="13.90" departDelay="-0.13" arrival="295.00" arrivalLane="ms_0" arrivalPos="490.95" arrivalSpeed="12.98" duration="267.00" routeLength="985.65" waitSteps="158" timeLoss="195.78" rerouteNo="0" devices="tripinfo_wm2msPKW.1" vType="PKW" speedFactor="1.00" vaporized=""/>
    <tripinfo id="em2mwPKW.5" depart="35.00" departLane="em_0" departPos="5.10" departSpeed="13.90" departDelay="-0.02" arrival="296.00" arrivalLane="mw_0" arrivalPos="490.95" arrivalSpeed="13.86" duration="261.00" routeLength="994.31" waitSteps="151" timeLoss="189.08" rerouteNo="0" devices="tripinfo_em2mwPKW.5" vType="PKW" speedFactor="1.00" vaporized=""/>
    <tripinfo id="em2mwPKW.6" depart="42.00" departLane="em_0" departPos="5.10" departSpeed="13.90" departDelay="-0.02" arrival="298.00" arrivalLane="mw_0" arrivalPos="490.95" arrivalSpeed="12.91" duration="256.00" routeLength="994.31" waitSteps="147" timeLoss="183.96" rerouteNo="0" devices="tripinfo_em2mwPKW.6" vType="PKW" speedFactor="1.00" vaporized=""/>
    <tripinfo id="wm2mePKW.5" depart="29.00" departLane="wm_0" departPos="5.10" departSpeed="11.12" departDelay="0.79" arrival="298.00" arrivalLane="me_0" arrivalPos="490.95" arrivalSpeed="13.05" duration="269.00" routeLength="994.31" waitSteps="154" timeLoss="196.38" rerouteNo="0" devices="tripinfo_wm2mePKW.5" vType="PKW" speedFactor="1.00" vaporized=""/>
    <tripinfo id="wm2mePKW.6" depart="33.00" departLane="wm_0" departPos="5.10" departSpeed="13.90" departDelay="-0.85" arrival="299.00" arrivalLane="me_0" arrivalPos="490.95" arrivalSpeed="13.18" duration="266.00" routeLength="994.31" waitSteps="154" timeLoss="194.06" rerouteNo="0" devices="tripinfo_wm2mePKW.6" vType="PKW" speedFactor="1.00" vaporized=""/>
    <tripinfo id="wm2mnPKW.4" depart="208.00" departLane="wm_1" departPos="5.10" departSpeed="13.90" departDelay="-0.69" arrival="301.00" arrivalLane="mn_0" arrivalPos="490.95" arrivalSpeed="13.51" duration="93.00" routeLength="993.44" waitSteps="9" timeLoss="20.95" rerouteNo="0" devices="tripinfo_wm2mnPKW.4" vType="PKW" speedFactor="1.00" vaporized=""/>
    <tripinfo id="nm2msPKW.2" depart="49.00" departLane="nm_0" departPos="5.10" departSpeed="13.90" departDelay="-0.65" arrival="314.00" arrivalLane="ms_0" arrivalPos="490.95" arrivalSpeed="13.89" duration="265.00" routeLength="994.31" waitSteps="167" timeLoss="193.20" rerouteNo="0" devices="tripinfo_nm2msPKW.2" vType="PKW" speedFactor="1.00" vaporized=""/>
    <tripinfo id="sm2mnPKW.2" depart="47.00" departLane="sm_0" departPos="5.10" departSpeed="13.90" departDelay="-0.68" arrival="315.00" arrivalLane="mn_0" arrivalPos="490.95" arrivalSpeed="12.87" duration="268.00" routeLength="994.31" waitSteps="167" timeLoss="195.52" rerouteNo="0" devices="tripinfo_sm2mnPKW.2" vType="PKW" speedFactor="1.00" vaporized=""/>
    <tripinfo id="sm2mwPKW.4" depart="158.00" departLane="sm_1" departPos="5.10" departSpeed="13.90" departDelay="-0.24" arrival="317.00" arrivalLane="mw_0" arrivalPos="490.95" arrivalSpeed="13.84" duration="159.00" routeLength="993.44" waitSteps="71" timeLoss="87.19" rerouteNo="0" devices="tripinfo_sm2mwPKW.4" vType="PKW" speedFactor="1.00" vaporized=""/>
    <tripinfo id="nm2mePKW.3" depart="200.00" departLane="nm_1" departPos="5.10" departSpeed="13.90" departDelay="0.00" arrival="317.00" arrivalLane="me_0" arrivalPos="490.95" arrivalSpeed="12.67" duration="117.00" routeLength="993.44" waitSteps="33" timeLoss="45.22" rerouteNo="0" devices="tripinfo_nm2mePKW.3" vType="PKW" speedFactor="1.00" vaporized=""/>
    <tripinfo id="em2mwPKW.7" depart="49.00" departLane="em_0" departPos="5.10" departSpeed="13.90" departDelay="-0.02" arrival="344.00" arrivalLane="mw_0" arrivalPos="490.95" arrivalSpeed="13.87" duration="295.00" routeLength="994.31" waitSteps="186" timeLoss="222.96" rerouteNo="0" devices="tripinfo_em2mwPKW.7" vType="PKW" speedFactor="1.00" vaporized=""/>
    <tripinfo id="wm2mePKW.7" depart="39.00" departLane="wm_0" departPos="5.10" departSpeed="13.90" departDelay="-0.49" arrival="344.00" arrivalLane="me_0" arrivalPos="490.95" arrivalSpeed="13.03" duration="305.00" routeLength="994.31" waitSteps="187" timeLoss="233.04" rerouteNo="0" devices="tripinfo_wm2mePKW.7" vType="PKW" speedFactor="1.00" vaporized=""/>
    <tripinfo id="em2mwPKW.8" depart="56.00" departLane="em_0" departPos="5.10" departSpeed="13.90" departDelay="-0.02" arrival="346.00" arrivalLane="mw_0" arrivalPos="490.95" arrivalSpeed="13.58" duration="290.00" routeLength="994.31" waitSteps="178" timeLoss="217.70" rerouteNo="0" devices="tripinfo_em2mwPKW.8" vType="PKW" speedFactor="1.00" vaporized=""/>
    <tripinfo id="wm2mePKW.8" depart="45.00" departLane="wm_0" departPos="5.10" departSpeed="13.90" departDelay="-0.14" arrival="346.00" arrivalLane="me_0" arrivalPos="490.95" arrivalSpeed="12.83" duration="301.00" routeLength="994.31" waitSteps="180" timeLoss="229.03" rerouteNo="0" devices="tripinfo_wm2mePKW.8" vType="PKW" speedFactor="1.00" vaporized=""/>
    <tripinfo id="wm2mnPKW.5" depart="260.00" departLane="wm_1" departPos="5.10" departSpeed="13.90" departDelay="-0.87" arrival="349.00" arrivalLane="mn_0" arrivalPos="490.95" arrivalSpeed="13.84" duration="89.00" routeLength="993.44" waitSteps="6" timeLoss="17.19" rerouteNo="0" devices="tripinfo_wm2mnPKW.5" vType="PKW" speedFactor="1.00" vaporized=""/>
    <tripinfo id="em2msPKW.3" depart="234.00" departLane="em_1" departPos="5.10" departSpeed="13.90" departDelay="-0.78" arrival="349.00" arrivalLane="ms_0" arrivalPos="490.95" arrivalSpeed="12.99" duration="115.00" routeLength="993.44" waitSteps="30" timeLoss="43.13" rerouteNo="0" devices="tripinfo_em2msPKW.3" vType="PKW" speedFactor="1.00" vaporized=""/>
    <tripinfo id="em2mwPKW.9" depart="63.00" departLane="em_0" departPos="5.10" departSpeed="13.90" departDelay="-0.03" arrival="350.00" arrivalLane="mw_0" arrivalPos="490.95" arrivalSpeed="13.36" duration="287.00" routeLength="994.31" waitSteps="173" timeLoss="214.41" rerouteNo="0" devices="tripinfo_em2mwPKW.9" vType="PKW" speedFactor="1.00" vaporized=""/>
    <tripinfo id="nm2mwPKW.1" depart="63.00" departLane="nm_0" departPos="5.10" departSpeed="13.90" departDelay="-0.16" arrival="362.00" arrivalLane="mw_0" arrivalPos="490.95" arrivalSpeed="13.23" duration="299.00" routeLength="985.65" waitSteps="199" timeLoss="227.48" rerouteNo="0" devices="tripinfo_nm2mwPKW.1" vType="PKW" speedFactor="1.00" vaporized=""/>
    <tripinfo id="sm2mnPKW.3" depart="71.00" departLane="sm_0" departPos="5.10" departSpeed="13.90" departDelay="-0.52" arrival="363.00" arrivalLane="mn_0" arrivalPos="490.95" arrivalSpeed="12.77" duration="292.00" routeLength="994.31" waitSteps="190" timeLoss="219.87" rerouteNo="0" devices="tripinfo_sm2mnPKW.3" vType="PKW" speedFactor="1.00" vaporized=""/>
    <tripinfo id="sm2mwPKW.5" depart="197.00" departLane="sm_1" departPos="5.10" departSpeed="13.90" departDelay="-0.80" arrival="364.00" arrivalLane="mw_0" arrivalPos="490.95" arrivalSpeed="12.71" duration="167.00" routeLength="993.44" waitSteps="79" timeLoss="95.03" rerouteNo="0" devices="tripinfo_sm2mwPKW.5" vType="PKW" speedFactor="1.00" vaporized=""/>
    <tripinfo id="nm2mePKW.4" depart="266.00" departLane="nm_1" departPos="5.10" departSpeed="13.90" departDelay="-0.66" arrival="366.00" arrivalLane="me_0" arrivalPos="490.95" arrivalSpeed="13.20" duration="100.00" routeLength="993.44" waitSteps="17" timeLoss="28.30" rerouteNo="0" devices="tripinfo_nm2mePKW.4" vType="PKW" speedFactor="1.00" vaporized=""/>
    <tripinfo id="em2mwLKW.1" depart="65.00" departLane="em_0" departPos="15.10" departSpeed="12.17" departDelay="1.84" arrival="392.00" arrivalLane="mw_0" arrivalPos="490.95" arrivalSpeed="12.95" duration="327.00" routeLength="984.31" waitSteps="205" timeLoss="255.42" rerouteNo="0" devices="tripinfo_em2mwLKW.1" vType="LKW" speedFactor="1.00" vaporized=""/>
    <tripinfo id="wm2mnPKW.6" depart="313.00" departLane="wm_1" departPos="5.10" departSpeed="13.90" departDelay="-0.04" arrival="392.00" arrivalLane="mn_0" arrivalPos="490.95" arrivalSpeed="12.94" duration="79.00" routeLength="993.44" waitSteps="0" timeLoss="6.61" rerouteNo="0" devices="tripinfo_wm2mnPKW.6" vType="PKW" speedFactor="1.00" vaporized=""/>
    <tripinfo id="wm2mePKW.9" depart="50.00" departLane="wm_0" departPos="5.10" departSpeed="13.90" departDelay="-0.78" arrival="392.00" arrivalLane="me_0" arrivalPos="490.95" arrivalSpeed="13.38" duration="342.00" routeLength="994.31" waitSteps="215" timeLoss="269.57" rerouteNo="0" devices="tripinfo_wm2mePKW.9" vType="PKW" speedFactor="1.00" vaporized=""/>
    <tripinfo id="em2msPKW.4" depart="313.00" departLane="em_1" departPos="5.10" departSpeed="13.90" departDelay="-0.04" arrival="392.00" arrivalLane="ms_0" arrivalPos="490.95" arrivalSpeed="12.86" duration="79.00" routeLength="993.44" waitSteps="0" timeLoss="7.06" rerouteNo="0" devices="tripinfo_em2msPKW.4" vType="PKW" speedFactor="1.00" vaporized=""/>
    <tripinfo id="em2mnPKW.1" depart="69.00" departLane="em_0" departPos="5.10" departSpeed="13.90" departDelay="-0.23" arrival="394.00" arrivalLane="mn_0" arrivalPos="490.95" arrivalSpeed="13.03" duration="325.00" routeLength="985.65" waitSteps="200" timeLoss="253.19" rerouteNo="0" devices="tripinfo_em2mnPKW.1" vType="PKW" speedFactor="1.00" vaporized=""/>
    <tripinfo id="wm2meLKW.1" depart="52.00" departLane="wm_0" departPos="15.10" departSpeed="12.34" departDelay="0.57" arrival="394.00" arrivalLane="me_0" arrivalPos="490.95" arrivalSpeed="13.03" duration="342.00" routeLength="984.31" waitSteps="214" timeLoss="270.28" rerouteNo="0" devices="tripinfo_wm2meLKW.1" vType="LKW" speedFactor="1.00" vaporized=""/>
    <tripinfo id="sm2mePKW.1" depart="73.00" departLane="sm_0" departPos="5.10" departSpeed="13.90" departDelay="-0.47" arrival="410.00" arrivalLane="me_0" arrivalPos="490.95" arrivalSpeed="13.15" duration="337.00" routeLength="985.65" waitSteps="231" timeLoss="265.80" rerouteNo="0" devices="tripinfo_sm2mePKW.1" vType="PKW" speedFactor="1.00" vaporized=""/>
    <tripinfo id="nm2msPKW.3" depart="74.00" departLane="nm_0" departPos="5.10" departSpeed="13.90" departDelay="-0.48" arrival="411.00" arrivalLane="ms_0" arrivalPos="490.95" arrivalSpeed="13.05" duration="337.00" routeLength="994.31" waitSteps="231" timeLoss="264.47" rerouteNo="0" devices="tripinfo_nm2msPKW.3" vType="PKW" speedFactor="1.00" vaporized=""/>
    <tripinfo id="sm2mwPKW.6" depart="237.00" departLane="sm_1" departPos="5.10" departSpeed="13.90" departDelay="-0.36" arrival="413.00" arrivalLane="mw_0" arrivalPos="490.95" arrivalSpeed="12.95" duration="176.00" routeLength="993.44" waitSteps="82" timeLoss="104.28" rerouteNo="0" devices="tripinfo_sm2mwPKW.6" vType="PKW" speedFactor="1.00" vaporized=""/>
    <tripinfo id="nm2mePKW.5" depart="333.00" departLane="nm_1" departPos="5.10" departSpeed="13.90" departDelay="-0.33" arrival="414.00" arrivalLane="me_0" arrivalPos="490.95" arrivalSpeed="13.45" duration="81.00" routeLength="993.44" waitSteps="1" timeLoss="8.84" rerouteNo="0" devices="tripinfo_nm2mePKW.5" vType="PKW" speedFactor="1.00" vaporized=""/>
    <tripinfo id="wm2msPKW.2" depart="56.00" departLane="wm_0" departPos="5.10" departSpeed="13.90" departDelay="-0.25" arrival="439.00" arrivalLane="ms_0" arrivalPos="490.95" arrivalSpeed="13.59" duration="383.00" routeLength="985.65" waitSteps="251" timeLoss="311.03" rerouteNo="0" devices="tripinfo_wm2msPKW.2" vType="PKW" speedFactor="1.00" vaporized=""/>
    <tripinfo id="em2mwPKW.10" depart="70.00" departLane="em_0" departPos="5.10" departSpeed="10.82" departDelay="-0.03" arrival="440.00" arrivalLane="mw_0" arrivalPos="490.95" arrivalSpeed="13.21" duration="370.00" routeLength="994.31" waitSteps="237" timeLoss="297.61" rerouteNo="0" devices="tripinfo_em2mwPKW.10" vType="PKW" speedFactor="1.00" vaporized=""/>
    <tripinfo id="wm2mePKW.10" depart="57.00" departLane="wm_0" departPos="5.10" departSpeed="11.00" departDelay="0.58" arrival="441.00" arrivalLane="me_0" arrivalPos="490.95" arrivalSpeed="12.83" duration="384.00" routeLength="994.31" waitSteps="245" timeLoss="311.82" rerouteNo="0" devices="tripinfo_wm2mePKW.10" vType="PKW" speedFactor="1.00" vaporized=""/>
    <tripinfo id="wm2mnLKW.1" depart="327.00" departLane="wm_1" departPos="15.10" departSpeed="13.90" departDelay="-0.27" arrival="442.00" arrivalLane="mn_0" arrivalPos="490.95" arrivalSpeed="13.01" duration="115.00" routeLength="983.44" waitSteps="34" timeLoss="43.30" rerouteNo="0" devices="tripinfo_wm2mnLKW.1" vType="LKW" speedFactor="1.00" vaporized=""/>
    <tripinfo id="wm2mePKW.11" depart="62.00" departLane="wm_0" departPos="5.10" departSpeed="13.90" departDelay="-0.06" arrival="443.00" arrivalLane="me_0" arrivalPos="490.95" arrivalSpeed="13.55" duration="381.00" routeLength="994.31" waitSteps="241" timeLoss="308.83" rerouteNo="0" devices="tripinfo_wm2mePKW.11" vType="PKW" speedFactor="1.00" vaporized=""/>
    <tripinfo id="em2mwPKW.11" depart="77.00" departLane="em_0" departPos="5.10" departSpeed="13.90" departDelay="-0.03" arrival="446.00" arrivalLane="mw_0" arrivalPos="490.95" arrivalSpeed="13.58" duration="369.00" routeLength="994.31" waitSteps="228" timeLoss="297.04" rerouteNo="0" devices="tripinfo_em2mwPKW.11" vType="PKW" speedFactor="1.00" vaporized=""/>